! TOUCHSTONE file generated by CST MICROWAVE STUDIO
! Date and time: Tue Aug  6 17:36:53 2024
! Project name: MS_SL_Transition_v32_taper_v2.cst
! Parameters = {F=14; HS=0.8; LP=10; LP_ext=12.5986; LS=80; L_PH_max=67.9371; L_PH_min=44.695; Lm=19.27; Lmm=19.8; MT=0.0175; PH_i=10; PH_o=50; PH_r=0.5; Rad_L=18.25; Rad_L1=18.25; SL_Stub_Rotate=0; Theta_L0=0.29; Theta_L3=3.328; WP=2.27; WS=120; WS_ext=9.84172; W_PH_max=0.105; W_PH_min=-2.165; W_SL_Stub=15; W_c=1.5; Wc=1.287; Wm=2.27; Wm_m=2.84; Wmm=0.89; Wsl=0.2; Xcenter_L=25.695; Ycenter_L=-1.03; dm=13; k=8.1; lmbd_m=111.11; lmbd_s=95; rad1=-0.83; rci=2; rco=2; theta=15; theta_L1=27.799; theta_L2=28.488; theta_MS_Stub=44}
! Header version: 2018
! Port assignment regex: !\s*Touchstone port\s*([0-9]+)\s*=\s*(CST MWS port|CST DS port)\s*([0-9]+|Zmin|Zmax)\s*\(\"(.*)\"\)(\s*mode\s*([0-9]+))?.*
! Touchstone port assignment:
! Touchstone port 1 = CST MWS port 1 ("")
! Touchstone port 2 = CST MWS port 2 ("")
! Touchstone port 3 = CST MWS port 3 ("")
! Touchstone port 4 = CST MWS port 4 ("")
# GHz S MA R 50
1                       0.893832        -16.3536         0.283506        -88.9308         0.283637         91.2406      0.000438888         142.237
                        0.283506        -88.9308         0.375845         80.4686         0.791259         176.318         0.377071        -159.779
                        0.283637         91.2406         0.791259         176.318         0.375455         80.5682         0.377399        -159.799
                     0.000439508         142.255         0.377071        -159.779         0.377399        -159.799         0.841696         69.9948
1.004                   0.892458        -17.4614           0.2852        -89.8912         0.285328          90.277      0.000430394         141.376
                          0.2852        -89.8911         0.376642         79.9453         0.791875         175.424         0.373533        -160.552
                        0.285342         90.2772         0.791874         175.424         0.376256          80.046         0.373862        -160.573
                     0.000431785         141.391         0.373533        -160.552         0.373862        -160.573         0.844813         69.3052
1.008                   0.891063        -18.5657         0.286907        -90.8512         0.287031         89.3137      0.000421873          140.54
                        0.286906        -90.8511         0.377443         79.4188          0.79248         174.528         0.369957        -161.327
                        0.287056          89.314         0.792479         174.528         0.377061         79.5207         0.370286        -161.349
                     0.000423959         140.546         0.369957        -161.327         0.370286        -161.349         0.847921         68.6134
1.012                   0.889647        -19.6664         0.288625        -91.8109         0.288745         88.3507      0.000413333         139.729
                        0.288624        -91.8108         0.378246         78.8889         0.793074          173.63         0.366343        -162.104
                        0.288781         88.3509         0.793073         173.629         0.377869          78.992         0.366673        -162.127
                     0.000416038         139.721         0.366343        -162.104         0.366673        -162.127         0.851021         67.9191
1.016                   0.888209        -20.7638         0.290356        -92.7704         0.290471         87.3878      0.000404782         138.946
                        0.290354        -92.7702         0.379053         78.3557         0.793658         172.729         0.362691        -162.884
                        0.290516         87.3879         0.793657         172.728         0.378681           78.46         0.363021        -162.908
                     0.000408029         138.918         0.362691        -162.883         0.363021        -162.908         0.854112         67.2225
1.02                    0.886749        -21.8579         0.292098        -93.7297         0.292209         86.4251      0.000396227         138.191
                        0.292096        -93.7295         0.379863         77.8191          0.79423         171.825         0.358999        -163.665
                        0.292261          86.425         0.794229         171.824         0.379497         77.9247          0.35933         -163.69
                     0.000399942          138.14            0.359        -163.665          0.35933         -163.69         0.857193         66.5236
1.024                   0.885268        -22.9488         0.293852        -94.6889         0.293959         85.4624      0.000387677         137.466
                         0.29385        -94.6887         0.380676         77.2791         0.794791         170.919         0.355269        -164.449
                        0.294017          85.462         0.794789         170.918         0.380315          77.386           0.3556        -164.475
                     0.000391784         137.387         0.355269        -164.449           0.3556        -164.475         0.860264         65.8222
1.028                   0.883764        -24.0366         0.295619         -95.648         0.295721         84.4998       0.00037914         136.773
                        0.295617        -95.6478         0.381491         76.7357         0.795339          170.01         0.351499        -165.235
                        0.295784         84.4991         0.795337         170.009         0.381137         76.8439         0.351831        -165.262
                     0.000383566         136.664           0.3515        -165.234          0.35183        -165.262         0.863323         65.1185
1.032                   0.882237        -25.1213         0.297398        -96.6071         0.297495         83.5372      0.000370623         136.113
                        0.297396        -96.6069         0.382309         76.1888         0.795875         169.099          0.34769        -166.023
                        0.297562         83.5362         0.795873         169.098         0.381961         76.2983         0.348021        -166.051
                     0.000375296          135.97          0.34769        -166.022          0.34802        -166.051         0.866371         64.4123
1.036                   0.880687        -26.2031         0.299189        -97.5663         0.299281         82.5745      0.000362135         135.489
                        0.299187        -97.5661         0.383128         75.6383         0.796397         168.185          0.34384        -166.813
                         0.29935         82.5731         0.796395         168.184         0.382788         75.7492         0.344171        -166.843
                     0.000366985         135.311         0.343841        -166.812         0.344171        -166.843         0.869407         63.7037
1.04                    0.879114        -27.2821         0.300992        -98.5256         0.301079         81.6117      0.000353685         134.903
                        0.300991        -98.5253          0.38395         75.0843         0.796907         167.268          0.33995        -167.605
                         0.30115           81.61         0.796904         167.267         0.383617         75.1966         0.340281        -167.636
                     0.000358644         134.687         0.339951        -167.605          0.34028        -167.636         0.872429         62.9927
1.044                   0.877517        -28.3583         0.302809         -99.485          0.30289         80.6487      0.000345281         134.357
                        0.302807        -99.4848         0.384773         74.5267         0.797402         166.349          0.33602          -168.4
                        0.302961         80.6467         0.797399         166.348         0.384448         74.6403          0.33635        -168.432
                     0.000350284         134.101          0.33602        -168.399         0.336349        -168.432         0.875438         62.2792
1.048                   0.875897        -29.4317         0.304637        -100.445         0.304713         79.6855      0.000336931         133.852
                        0.304636        -100.444         0.385598         73.9655         0.797883         165.427         0.332048        -169.196
                        0.304784         79.6832          0.79788         165.426         0.385281         74.0805         0.332377         -169.23
                     0.000341917         133.558         0.332048        -169.196         0.332377         -169.23         0.878432         61.5632
1.052                   0.874252        -30.5026         0.306479        -101.405         0.306548         78.7221      0.000328645         133.392
                        0.306478        -101.404         0.386425         73.4007         0.798349         164.502         0.328034        -169.995
                        0.306619         78.7195         0.798346         164.502         0.386116          73.517         0.328364        -170.031
                     0.000333555         133.059         0.328035        -169.995         0.328363        -170.031         0.881411         60.8448
1.056                   0.872582        -31.5708         0.308333        -102.365         0.308396         77.7584      0.000320431          132.98
                        0.308332        -102.365         0.387252         72.8321         0.798799         163.575         0.323979        -170.796
                        0.308465         77.7556         0.798797         163.574         0.386952         72.9499         0.324308        -170.833
                     0.000325211         132.609          0.32398        -170.796         0.324307        -170.833         0.884375         60.1239
1.06                    0.870888        -32.6367           0.3102        -103.325         0.310256         76.7943      0.000312299         132.617
                        0.310199        -103.325          0.38808         72.2598         0.799234         162.645         0.319882          -171.6
                        0.310323         76.7913         0.799232         162.644         0.387789         72.3789          0.32021        -171.638
                     0.000316899         132.211         0.319883          -171.6         0.320209        -171.638         0.887321         59.4005
1.064                   0.869167        -33.7001          0.31208        -104.287         0.312129         75.8298      0.000304259         132.307
                        0.312079        -104.286         0.388909         71.6838         0.799653         161.712         0.315743        -172.406
                        0.312193         75.8267          0.79965         161.712         0.388627         71.8043          0.31607        -172.446
                     0.000308633         131.868         0.315743        -172.405         0.316069        -172.446          0.89025         58.6745
1.068                   0.867422        -34.7612         0.313973        -105.248         0.314015         74.8649      0.000296321         132.053
                        0.313972        -105.248         0.389737          71.104         0.800054         160.777         0.311561        -173.213
                        0.314075         74.8617         0.800052         160.776         0.389466         71.2258         0.311887        -173.255
                     0.000300427         131.584         0.311562        -173.213         0.311886        -173.255         0.893161         57.9461
1.072                   0.865649          -35.82         0.315878         -106.21         0.315913         73.8995      0.000288496         131.857
                        0.315878         -106.21         0.390566         70.5203         0.800439         159.838         0.307336        -174.024
                         0.31597         73.8963         0.800436         159.838         0.390305         70.6434         0.307661        -174.067
                     0.000292298         131.365         0.307337        -174.023          0.30766        -174.067         0.896052         57.2151
1.076                   0.863851        -36.8767         0.317797        -107.173         0.317825         72.9336      0.000280794         131.725
                        0.317797        -107.173         0.391395         69.9327         0.800805         158.897         0.303068        -174.836
                        0.317877         72.9305         0.800802         158.897         0.391143         70.0572         0.303392        -174.881
                      0.00028426         131.214         0.303069        -174.836         0.303391        -174.881         0.898924         56.4816
1.08                    0.862025        -37.9312         0.319728        -108.136         0.319748         71.9672      0.000273227         131.658
                        0.319729        -108.136         0.392223         69.3413         0.801153         157.953         0.298757        -175.651
                        0.319796         71.9641          0.80115         157.953         0.391982         69.4671         0.299079        -175.697
                     0.000276331         131.135         0.298757         -175.65         0.299079        -175.697         0.901775         55.7455
1.084                   0.860172        -38.9837         0.321673          -109.1         0.321685         71.0001      0.000265806         131.661
                        0.321673          -109.1         0.393049         68.7459         0.801482         157.007         0.294402        -176.468
                        0.321728         70.9971          0.80148         157.006          0.39282         68.8729         0.294723        -176.516
                      0.00026853         131.134         0.294402        -176.467         0.294722        -176.516         0.904604         55.0068
1.088                   0.858291        -40.0342          0.32363        -110.064         0.323635         70.0324      0.000258546         131.738
                        0.323631        -110.064         0.393875         68.1465         0.801792         156.057         0.290003        -177.287
                        0.323673         70.0296         0.801789         156.056         0.393656         68.2748         0.290322        -177.337
                     0.000260873         131.216         0.290003        -177.287         0.290322        -177.337         0.907411         54.2656
1.092                   0.856382        -41.0828         0.325601         -111.03         0.325597         69.0639      0.000251459         131.892
                        0.325602         -111.03         0.394699          67.543         0.802081         155.104         0.285559        -178.108
                         0.32563         69.0614         0.802079         155.104         0.394492         67.6727         0.285877        -178.161
                     0.000253381         131.385         0.285559        -178.108         0.285877        -178.161         0.910194         53.5217
1.096                   0.854445        -42.1295         0.327584        -111.996         0.327572         68.0948      0.000244559         132.128
                        0.327586        -111.996         0.395521         66.9356          0.80235         154.149         0.281071        -178.932
                          0.3276         68.0926         0.802348         154.149         0.395326         67.0664         0.281388        -178.987
                     0.000246075         131.647         0.281072        -178.932         0.281388        -178.987         0.912953         52.7753
1.1                     0.852478        -43.1744          0.32958        -112.963          0.32956         67.1249      0.000237861         132.448
                        0.329582        -112.963         0.396341          66.324         0.802597         153.191         0.276539        -179.758
                        0.329583          67.123         0.802595          153.19         0.396157         66.4561         0.276854        -179.815
                     0.000238974         132.006         0.276539        -179.758         0.276853        -179.815         0.915687         52.0263
1.104                   0.850482        -44.2176          0.33159        -113.931         0.331561         66.1541      0.000231381         132.858
                        0.331592        -113.931         0.397158         65.7083         0.802823         152.229         0.271961         179.414
                        0.331579         66.1527         0.802821         152.229         0.396986         65.8415         0.272275         179.355
                     0.000232103         132.467         0.271961         179.414         0.272274         179.355         0.918394         51.2746
1.108                   0.848457        -45.2591         0.333612        -114.899         0.333575         65.1825      0.000225135         133.359
                        0.333615        -114.899         0.397972         65.0884         0.803026         151.265         0.267339         178.584
                        0.333587         65.1815         0.803025         151.265         0.397813         65.2228          0.26765         178.522
                     0.000225484         133.035         0.267339         178.584          0.26765         178.522         0.921074         50.5204
1.112                   0.846401        -46.2989         0.335648        -115.869         0.335601           64.21      0.000219141         133.957
                        0.335651        -115.869         0.398783         64.4643         0.803206         150.298         0.262671         177.751
                        0.335609         64.2095         0.803205         150.298         0.398636         64.5999          0.26298         177.687
                      0.00021914         133.713         0.262671         177.751          0.26298         177.687         0.923726         49.7634
1.116                   0.844314        -47.3372         0.337696         -116.84          0.33764         63.2366      0.000213417         134.653
                        0.337699         -116.84         0.399589          63.836         0.803362         149.328         0.257957         176.916
                        0.337644         63.2366         0.803362         149.328         0.399455         63.9727         0.258265          176.85
                     0.000213097         134.505         0.257957         176.916         0.258264          176.85         0.926348         49.0039
1.12                    0.842197         -48.374         0.339758        -117.811         0.339693         62.2623       0.00020798         135.449
                        0.339761        -117.812         0.400392         63.2034         0.803495         148.354         0.253198         176.079
                        0.339691         62.2627         0.803495         148.354          0.40027         63.3412         0.253503         176.011
                     0.000207381         135.413         0.253198          176.08         0.253503         176.011          0.92894         48.2417
1.124                   0.840048        -49.4093         0.341832        -118.784         0.341758         61.2869      0.000202851         136.347
                        0.341835        -118.784         0.401189         62.5665         0.803602         147.378         0.248393          175.24
                        0.341752         61.2879         0.803603         147.378          0.40108         62.7053         0.248696         175.169
                     0.000202016         136.438         0.248393         175.241         0.248696         175.169         0.931501         47.4769
1.128                   0.837867        -50.4432         0.343919        -119.758         0.343835         60.3105      0.000198049         137.347
                        0.343923        -119.758         0.401981         61.9253         0.803684         146.399         0.243542         174.399
                        0.343825         60.3121         0.803685         146.399         0.401885         62.0651         0.243843         174.325
                     0.000197029         137.579         0.243542           174.4         0.243843         174.325         0.934029         46.7094
1.132                   0.835653        -51.4757         0.346019        -120.733         0.345925          59.333      0.000193593         138.447
                        0.346023        -120.733         0.402768         61.2797          0.80374         145.417         0.238645         173.556
                        0.345912         59.3352         0.803741         145.417         0.402685         61.4205         0.238943         173.479
                     0.000192444         138.834         0.238644         173.556         0.238943         173.479         0.936524         45.9392
1.136                   0.833407        -52.5068         0.348131        -121.709         0.348028         58.3544      0.000189503         139.646
                        0.348135         -121.71         0.403548         60.6296         0.803768         144.432         0.233701         172.711
                        0.348011         58.3572          0.80377         144.432         0.403479         60.7714         0.233998         172.631
                     0.000188286         140.199         0.233701         172.711         0.233998         172.631         0.938984         45.1664
1.14                    0.831129        -53.5368         0.350256        -122.687         0.350144         57.3747      0.000185797         140.938
                        0.350261        -122.687         0.404322         59.9752          0.80377         143.443         0.228711         171.864
                        0.350124         57.3781         0.803772         143.443         0.404266         60.1178         0.229005          171.78
                     0.000184578         141.667         0.228711         171.864         0.229005          171.78         0.941408         44.3908
1.144                   0.828816        -54.5654         0.352394        -123.665         0.352272         56.3938      0.000182494         142.319
                        0.352399        -123.666         0.405089         59.3162         0.803743         142.452         0.223675         171.015
                        0.352249         56.3978         0.803746         142.452         0.405046         59.4598         0.223966         170.928
                     0.000181339         143.228         0.223674         171.015         0.223967         170.928         0.943795         43.6126
1.148                    0.82647        -55.5929         0.354544        -124.645         0.354412         55.4116      0.000179608          143.78
                        0.354549        -124.646         0.405848         58.6527         0.803687         141.457         0.218592         170.164
                        0.354386         55.4163         0.803691         141.458         0.405819         58.7971         0.218881         170.073
                     0.000178588          144.87         0.218592         170.164         0.218881         170.073         0.946144         42.8318
1.152                   0.824089        -56.6192         0.356707        -125.627         0.356564         54.4283      0.000177155          145.31
                        0.356712        -125.627         0.406599         57.9846         0.803602          140.46         0.213463         169.311
                        0.356537         54.4335         0.803607          140.46         0.406584         58.1299         0.213749         169.217
                     0.000176339         146.581         0.213462         169.311         0.213749         169.217         0.948454         42.0482
1.156                   0.821674        -57.6445         0.358881        -126.609         0.358729         53.4437      0.000175147           146.9
                        0.358887        -126.609         0.407341          57.312         0.803487         139.459         0.208287         168.457
                          0.3587         53.4495         0.803492         139.459          0.40734         57.4581          0.20857         168.358
                     0.000174602         148.343         0.208286         168.457         0.208571         168.358         0.950723         41.2619
1.16                    0.819224        -58.6686         0.361069        -127.593         0.360906         52.4578      0.000173591         148.535
                        0.361074        -127.593         0.408074         56.6348         0.803341         138.455         0.203065         167.601
                        0.360875         52.4641         0.803346         138.456         0.408086         56.7817         0.203345         167.498
                     0.000173381         150.138         0.203064         167.601         0.203345         167.498         0.952951          40.473
1.164                   0.816738        -59.6918         0.363268        -128.578         0.363095         51.4705      0.000172494           150.2
                        0.363273        -128.579         0.408797         55.9529         0.803163         137.448         0.197795         166.744
                        0.363063         51.4774         0.803169         137.449         0.408823         56.1006         0.198073         166.636
                     0.000172678         151.949         0.197794         166.744         0.198073         166.636         0.955135         39.6814
1.168                   0.814217        -60.7139         0.365479        -129.565         0.365296         50.4819      0.000171857         151.881
                        0.365484        -129.566          0.40951         55.2664         0.802953         136.438          0.19248         165.885
                        0.365263         50.4893          0.80296         136.439          0.40955         55.4148         0.192754         165.773
                     0.000172487         153.755         0.192479         165.885         0.192755         165.773         0.957275         38.8871
1.172                   0.811659        -61.7351         0.367702        -130.553         0.367509         49.4919      0.000171678          153.56
                        0.367708        -130.554         0.410211         54.5752          0.80271         135.425         0.187118         165.025
                        0.367475         49.4998         0.802718         135.426         0.410265         54.7243         0.187389         164.908
                       0.0001728         155.537         0.187116         165.025         0.187389         164.908          0.95937         38.0901
1.176                   0.809065        -62.7553         0.369937        -131.543         0.369734         48.5005      0.000171953         155.223
                        0.369942        -131.543         0.410901         53.8792         0.802434         134.409         0.181709         164.164
                        0.369699         48.5088         0.802442         134.409         0.410969          54.029         0.181977         164.041
                       0.0001736         157.278         0.181708         164.164         0.181978         164.041         0.961418         37.2904
1.18                    0.806434        -63.7747         0.372183        -132.534          0.37197         47.5077      0.000172671         156.854
                        0.372189        -132.535         0.411579         53.1785         0.802123         133.389         0.176254         163.302
                        0.371935         47.5164         0.802131          133.39         0.411661          53.329         0.176519         163.173
                     0.000174871         158.961         0.176253         163.302         0.176519         163.173         0.963418          36.488
1.184                   0.803766        -64.7932         0.374441        -133.527         0.374217         46.5134       0.00017382         158.438
                        0.374447        -133.527         0.412244          52.473         0.801777         132.366         0.170753          162.44
                        0.374183         46.5225         0.801786         132.367         0.412339         52.6241         0.171015         162.304
                      0.00017659         160.572         0.170752         162.439         0.171015         162.304         0.965369          35.683
1.188                    0.80106        -65.8109          0.37671        -134.521         0.376476         45.5176      0.000175384         159.962
                        0.376716        -134.522         0.412895         51.7628         0.801396         131.341         0.165206         161.577
                        0.376442          45.527         0.801405         131.341         0.413005         51.9144         0.165464         161.435
                     0.000178732         162.098         0.165205         161.576         0.165464         161.435         0.967268         34.8753
1.192                   0.798316        -66.8277          0.37899        -135.517         0.378746         44.5203      0.000177346         161.416
                        0.378996        -135.517         0.413532         51.0477         0.800978         130.312         0.159613         160.714